version 3
run General-0-20230509-21:12:14-25080
attr configname General
attr datetime 20230509-21:12:14
attr datetimef 20230509-211214
attr experiment General
attr inifile omnetpp.ini
attr iterationvars ""
attr iterationvarsd ""
attr iterationvarsf ""
attr measurement ""
attr network Network
attr processid 25080
attr repetition 0
attr replication #0
attr resultdir results
attr runnumber 0
attr seedset 0
config network Network
config sim-time-limit 200s
config Network.nodeTx.gen.generationInterval exponential(0.1)
config Network.nodeTx.gen.packetByteSize 12500
config Network.queue.bufferSize 200
config Network.nodeRx.queue.bufferSize 200
config Network.nodeTx.queue.bufferSize 2000000

vector 0 Network.nodeTx.gen packetGen ETV
vector 1 Network.nodeTx.queue bufferVector ETV
vector 2 Network.queue bufferVector ETV
vector 3 Network.nodeRx.queue bufferVector ETV
vector 4 Network.nodeRx.sink Delay ETV
vector 5 Network.nodeRx.sink packetesRecibidos ETV
vector 6 Network.queue packetVector ETV
0	1	0.079587450457	1
0	4	0.169443489305	1
0	11	0.29503656511	1
0	21	0.480996986317	1
0	24	0.573319299464	1
0	35	0.768473833052	1
0	41	0.84719394705	1
0	52	1.03509035247	1
0	57	1.090195201137	1
0	64	1.187895843776	1
0	70	1.291711773842	1
0	74	1.340224590214	1
0	79	1.397776509902	1
0	81	1.433092423816	1
0	94	1.65544486602	1
0	96	1.661283332929	1
0	114	1.992774560922	1
0	117	2.024610175006	1
0	119	2.072970385501	1
0	125	2.137915020326	1
0	136	2.294804632088	1
0	143	2.46202575212	1
0	149	2.537293163451	1
0	156	2.602681420173	1
0	160	2.686624705463	1
0	164	2.736511906365	1
0	180	2.99633731495	1
0	187	3.177174241377	1
0	193	3.184542776924	1
0	195	3.225700576548	1
0	197	3.23481667916	1
0	203	3.339277929991	1
0	205	3.341320488831	1
0	212	3.387245302557	1
0	218	3.565994068901	1
0	238	3.881011061769	1
0	245	4.031589487633	1
0	247	4.046712572999	1
0	258	4.250743998793	1
0	269	4.454833220384	1
0	284	4.839355407298	1
0	289	4.903526324566	1
0	298	5.064050280272	1
0	308	5.225450487761	1
0	313	5.287343433724	1
0	317	5.360839875843	1
0	326	5.512493473242	1
0	335	5.626087367413	1
0	338	5.638674808357	1
0	344	5.766197578579	1
0	351	5.868340766014	1
0	357	5.955572885518	1
0	359	5.971045853568	1
0	366	6.048129319415	1
0	381	6.337571367214	1
0	389	6.479707835223	1
0	394	6.553490564399	1
0	396	6.564685180462	1
0	403	6.618241752485	1
0	409	6.682411222688	1
0	411	6.713139257903	1
0	413	6.733759586106	1
0	424	6.882585068681	1
0	431	7.016114087143	1
0	433	7.077022329461	1
0	439	7.101427178535	1
0	446	7.185460649096	1
0	448	7.199988451825	1
0	450	7.201885308745	1
0	452	7.241062389813	1
0	458	7.33720048372	1
0	460	7.353414132665	1
0	467	7.448113800382	1
0	469	7.473257993589	1
0	475	7.569212791326	1
0	482	7.618068496257	1
0	497	7.905859998385	1
0	508	8.138751335806	1
0	515	8.253265231276	1
0	521	8.313039838958	1
0	523	8.357591688463	1
0	530	8.452541146813	1
0	536	8.509994387487	1
0	547	8.742629493656	1
0	554	8.862240273602	1
0	556	8.87269639618	1
0	558	8.878907925227	1
0	578	9.228929293672	1
0	584	9.338820540427	1
0	591	9.444703953576	1
0	597	9.555763698145	1
0	599	9.574506304747	1
0	606	9.598126975355	1
0	608	9.642467378217	1
0	610	9.65627024706	1
0	621	9.795174516039	1
0	623	9.833070712467	1
0	629	9.926676868444	1
0	631	9.971887074466	1
0	638	10.011198330196	1
0	644	10.095641109549	1
0	646	10.09955942519	1
0	648	10.157291856271	1
0	655	10.257878956788	1
0	679	10.703328641406	1
0	695	11.022623305611	1
0	697	11.033386816427	1
0	703	11.139169457762	1
0	705	11.16259960964	1
0	712	11.263401534182	1
0	718	11.280992888725	1
0	743	11.817002923749	1
0	749	11.922877195258	1
0	756	12.010068780621	1
0	758	12.039276833948	1
0	764	12.092783301656	1
0	766	12.155577459755	1
0	773	12.219955559915	1
0	775	12.247983260763	1
0	781	12.34566966817	1
0	783	12.362982413785	1
0	790	12.404232536777	1
0	792	12.415928077756	1
0	798	12.528244907909	1
0	805	12.635052127624	1
0	807	12.673207711961	1
0	813	12.688078938886	1
0	820	12.838742472213	1
0	822	12.860630531864	1
0	837	13.159349521049	1
0	844	13.205350916823	1
0	850	13.313977854911	1
0	861	13.486011020683	1
0	863	13.487377478526	1
0	865	13.497591966678	1
0	872	13.595102160094	1
0	878	13.777084052022	1
0	889	13.889065488597	1
0	891	13.899168966128	1
0	907	14.256527803362	1
0	927	14.63143094932	1
0	938	14.841963079399	1
0	944	14.905196739039	1
0	946	14.976455098372	1
0	966	15.352647826822	1
0	968	15.358380519464	1
0	975	15.451228369154	1
0	981	15.511223057818	1
0	988	15.645647585033	1
0	990	15.647666597848	1
0	992	15.651664227754	1
0	998	15.709952066641	1
0	1000	15.743193090737	1
0	1020	16.132350103022	1
0	1022	16.145155779553	1
0	1029	16.189697725745	1
0	1031	16.224815334683	1
0	1037	16.290379963119	1
0	1039	16.303018826762	1
0	1046	16.419706179417	1
0	1048	16.457976274303	1
0	1059	16.670399994003	1
0	1065	16.723888431579	1
0	1076	16.974279609888	1
0	1083	16.980909350036	1
0	1085	17.005348894844	1
0	1091	17.123267847551	1
0	1098	17.206552199158	1
0	1104	17.290161952355	1
0	1115	17.490486004606	1
0	1117	17.521327488616	1
0	1124	17.592452282338	1
0	1126	17.666528177383	1
0	1141	17.915086413081	1
0	1143	17.924951443923	1
0	1154	18.178981894719	1
0	1161	18.264771458826	1
0	1163	18.27344850706	1
0	1178	18.538374099928	1
0	1180	18.570908141481	1
0	1187	18.609264162891	1
0	1189	18.610204237957	1
0	1195	18.720288828966	1
0	1206	18.905021594066	1
0	1208	18.919154665422	1
0	1215	19.02333273084	1
0	1221	19.149326111851	1
0	1232	19.333454359	1
0	1234	19.367619775703	1
0	1241	19.398371548079	1
0	1243	19.418606591936	1
0	1245	19.469326604262	1
0	1251	19.557639508458	1
0	1258	19.638119248438	1
0	1260	19.640150494318	1
0	1262	19.658175719516	1
0	1273	19.834749826757	1
0	1279	19.880922916361	1
0	1281	19.88139357041	1
0	1283	19.897227721033	1
0	1290	20.01049113523	1
0	1296	20.094799438445	1
0	1298	20.12627160453	1
0	1305	20.247922469874	1
0	1316	20.380798257249	1
0	1318	20.414832931073	1
0	1333	20.742347248844	1
0	1340	20.799137664192	1
0	1342	20.827739761443	1
0	1348	20.968842202372	1
0	1355	21.054681499155	1
0	1361	21.105115879814	1
0	1368	21.194774966893	1
0	1379	21.421148324479	1
0	1385	21.506070405635	1
0	1392	21.607936278637	1
0	1394	21.633178277926	1
0	1405	21.855328967773	1
0	1420	22.160557133461	1
0	1427	22.274517929814	1
0	1433	22.333780332559	1
0	1440	22.393418271992	1
0	1451	22.580764259978	1
0	1466	22.965064918302	1
0	1477	23.085288775027	1
0	1479	23.097641439763	1
0	1481	23.13294345309	1
0	1488	23.278625308946	1
0	1499	23.446717529401	1
0	1505	23.499789779063	1
0	1507	23.550291653838	1
0	1514	23.662819855522	1
0	1525	23.875769795129	1
0	1531	23.904510842736	1
0	1538	23.991564425369	1
0	1540	24.02913830961	1
0	1551	24.242621354608	1
0	1566	24.579058399913	1
0	1577	24.696996693277	1
0	1584	24.785782834321	1
0	1590	24.914973761201	1
0	1597	25.022757249615	1
0	1603	25.092337195705	1
0	1605	25.168523972835	1
0	1623	25.481070808601	1
0	1626	25.507276532769	1
0	1633	25.610556233834	1
0	1635	25.66078731366	1
0	1641	25.715926912673	1
0	1648	25.812372269222	1
0	1654	25.905612557263	1
0	1656	25.970023028095	1
0	1658	25.97196100623	1
0	1665	26.035473777793	1
0	1667	26.07136649938	1
0	1678	26.197270851106	1
0	1684	26.305202870972	1
0	1686	26.33916934423	1
0	1688	26.3734293067	1
0	1695	26.421792875359	1
0	1701	26.518030380936	1
0	1708	26.65632830159	1
0	1714	26.712324408597	1
0	1725	26.923069169092	1
0	1727	26.937626566937	1
0	1729	26.948481276786	1
0	1736	26.983903690011	1
0	1738	26.993595965469	1
0	1740	27.077984812728	1
0	1746	27.121687614105	1
0	1753	27.211060521936	1
0	1759	27.291315720512	1
0	1761	27.376723694076	1
0	1766	27.380144035912	1
0	1774	27.48604497445	1
0	1790	27.833298522378	1
0	1796	27.938883483244	1
0	1798	27.977596492459	1
0	1805	28.034057542571	1
0	1807	28.059065692069	1
0	1822	28.285929091338	1
0	1824	28.301158453863	1
0	1826	28.346975742259	1
0	1828	28.357207803744	1
0	1835	28.414453958887	1
0	1855	28.828234934938	1
0	1866	29.050726400661	1
0	1870	29.080882991983	1
0	1879	29.244972749776	1
0	1885	29.321980435731	1
0	1892	29.443682385265	1
0	1898	29.503089735097	1
0	1900	29.51365099946	1
0	1902	29.52413918302	1
0	1913	29.776067396028	1
0	1920	29.819501961622	1
0	1926	29.944762714113	1
0	1933	30.008108975885	1
0	1966	30.684648027879	1
0	1973	30.868621306387	1
0	1979	30.884808315058	1
0	1990	31.119826044033	1
0	2001	31.322416925743	1
0	2004	31.326245217031	1
0	2006	31.343977774546	1
0	2011	31.414969567268	1
0	2017	31.51056620966	1
0	2021	31.528820069848	1
0	2023	31.542038440809	1
0	2032	31.69302078637	1
0	2043	31.881413675029	1
0	2054	32.081612324582	1
0	2063	32.246284234715	1
0	2067	32.299284522529	1
0	2074	32.383472618702	1
0	2076	32.398551719721	1
0	2080	32.45083872273	1
0	2082	32.454217401285	1
0	2084	32.461384939716	1
0	2104	32.866369623596	1
0	2113	32.985913480224	1
0	2117	33.032640736865	1
0	2121	33.09307064405	1
0	2125	33.147556356864	1
0	2132	33.275589777245	1
0	2136	33.280781032463	1
0	2147	33.482058306084	1
0	2151	33.527549490563	1
0	2169	33.898545549753	1
0	2171	33.900222326352	1
0	2182	34.093880050101	1
0	2184	34.120112981018	1
0	2186	34.12129130421	1
0	2195	34.266070712409	1
0	2199	34.310695994461	1
0	2215	34.599157169671	1
0	2223	34.730087006073	1
0	2231	34.868716141275	1
0	2236	34.887545638797	1
0	2238	34.929006893063	1
0	2245	35.002620003062	1
0	2249	35.069866054745	1
0	2251	35.075453060034	1
0	2255	35.116850952301	1
0	2257	35.139164873111	1
0	2259	35.158947823857	1
0	2261	35.160817370899	1
0	2265	35.179569266019	1
0	2274	35.33741053823	1
0	2281	35.399670272628	1
0	2283	35.425020843142	1
0	2294	35.632623949186	1
0	2298	35.674989659322	1
0	2311	35.963444088163	1
0	2327	36.226665974418	1
0	2333	36.32037984619	1
0	2340	36.442259526524	1
0	2346	36.533055929256	1
0	2348	36.536291609721	1
0	2359	36.689374732348	1
0	2361	36.707370466503	1
0	2365	36.776690443457	1
0	2372	36.873838659266	1
0	2374	36.879006949846	1
0	2378	36.965099313514	1
0	2389	37.085196404168	1
0	2391	37.112363211202	1
0	2416	37.600276500001	1
0	2429	37.872411325592	1
0	2433	37.903508106089	1
0	2440	37.998691076843	1
0	2446	38.112350726369	1
0	2453	38.189058691826	1
0	2464	38.388775888575	1
0	2468	38.477913746266	1
0	2477	38.616881452644	1
0	2483	38.74785998978	1
0	2499	39.081653423165	1
0	2502	39.119042072755	1
0	2509	39.199840078095	1
0	2511	39.250626590364	1
0	2513	39.274501877649	1
0	2519	39.298054334991	1
0	2521	39.323214196302	1
0	2523	39.34381740115	1
0	2525	39.36850332803	1
0	2541	39.65741088722	1
0	2547	39.741708764761	1
0	2554	39.876243508084	1
0	2560	39.936411406736	1
0	2567	40.0038358637	1
0	2582	40.355283731754	1
0	2587	40.381085008148	1
0	2595	40.495198798434	1
0	2597	40.524549563626	1
0	2599	40.533464992626	1
0	2601	40.539443088918	1
0	2603	40.54525032513	1
0	2610	40.602240081661	1
0	2612	40.66915145403	1
0	2618	40.706518433469	1
0	2629	40.919385442922	1
0	2636	41.038571253287	1
0	2656	41.41324071467	1
0	2658	41.460682343703	1
0	2664	41.55682630086	1
0	2666	41.576623074393	1
0	2673	41.654820646481	1
0	2675	41.657319481812	1
0	2686	41.8501554955	1
0	2688	41.857117262607	1
0	2699	41.993310435038	1
0	2705	42.107064285592	1
0	2707	42.172187358784	1
0	2714	42.232645480618	1
0	2720	42.345681035209	1
0	2727	42.422593015319	1
0	2733	42.51599904858	1
0	2744	42.742983050158	1
0	2751	42.868403377167	1
0	2775	43.332368629804	1
0	2782	43.395761631743	1
0	2784	43.420210733947	1
0	2788	43.481094025321	1
0	2797	43.589884468682	1
0	2808	43.826776285766	1
0	2810	43.857336775947	1
0	2812	43.872096379236	1
0	2814	43.874183101097	1
0	2820	43.900218242252	1
0	2827	44.042256587811	1
0	2838	44.255612916558	1
0	2844	44.294181685963	1
0	2855	44.528966062106	1
0	2857	44.577329900855	1
0	2866	44.681114908404	1
0	2870	44.769865101252	1
0	2877	44.809122404071	1
0	2888	44.986936737754	1
0	2890	45.060273505071	1
0	2896	45.159423934361	1
0	2898	45.159429469551	1
0	2909	45.365511593639	1
0	2916	45.402887923021	1
0	2918	45.434845388508	1
0	2924	45.490262471413	1
0	2931	45.650234415597	1
0	2942	45.866810783684	1
0	2948	45.887345560558	1
0	2955	46.001251325625	1
0	2970	46.306569792584	1
0	2972	46.367474253855	1
0	2983	46.483785582198	1
0	2985	46.549835890173	1
0	2987	46.57410773954	1
0	2998	46.729574033321	1
0	3014	47.024022061063	1
0	3017	47.050086074001	1
0	3026	47.181336873298	1
0	3037	47.393611538692	1
0	3040	47.422906684541	1
0	3042	47.460549619693	1
0	3046	47.484541971637	1
0	3064	47.800251525779	1
0	3067	47.873274292303	1
0	3073	47.937093152862	1
0	3075	47.939692927381	1
0	3082	48.064028005176	1
0	3086	48.087280507014	1
0	3090	48.103967971137	1
0	3092	48.159251808202	1
0	3101	48.290349045018	1
0	3105	48.337216692616	1
0	3112	48.441137256274	1
0	3118	48.50342018725	1
0	3120	48.527612151727	1
0	3122	48.560133753525	1
0	3127	48.580769552885	1
0	3131	48.669148118488	1
0	3142	48.833955735804	1
0	3153	49.033359655932	1
0	3159	49.170827651312	1
0	3164	49.183330910304	1
0	3170	49.295676960259	1
0	3174	49.368529344532	1
0	3181	49.400949255881	1
0	3183	49.415113459361	1
0	3185	49.434339603445	1
0	3191	49.560520870794	1
0	3200	49.682420805312	1
0	3204	49.732848798637	1
0	3209	49.795052490545	1
0	3213	49.87839031461	1
0	3224	50.061916654904	1
0	3228	50.082162531274	1
0	3232	50.105086963795	1
0	3234	50.120734540833	1
0	3236	50.138761970791	1
0	3243	50.205716029877	1
0	3245	50.219050092204	1
0	3247	50.262995631253	1
0	3256	50.391038066651	1
0	3269	50.673101661493	1
0	3271	50.676194290649	1
0	3282	50.821149768292	1
0	3288	50.958584069734	1
0	3297	51.096680379301	1
0	3301	51.106397147138	1
0	3312	51.340446343204	1
0	3314	51.364966152468	1
0	3316	51.373677010794	1
0	3327	51.512008657409	1
0	3332	51.592347833676	1
0	3340	51.723910459506	1
0	3347	51.811731967378	1
0	3349	51.816400741742	1
0	3364	52.143250381824	1
0	3366	52.16671596675	1
0	3373	52.201267925121	1
0	3375	52.235083396605	1
0	3377	52.262636190309	1
0	3383	52.375728038228	1
0	3388	52.386296755638	1
0	3390	52.392808042117	1
0	3392	52.394464651559	1
0	3396	52.475578753782	1
0	3411	52.740834605334	1
0	3413	52.741762907772	1
0	3420	52.852603883193	1
0	3431	53.031602843641	1
0	3440	53.185385715089	1
0	3462	53.600982824645	1
0	3464	53.634073812763	1
0	3470	53.755642860099	1
0	3477	53.843930914595	1
0	3479	53.863975134104	1
0	3481	53.870584335173	1
0	3487	53.942408983184	1
0	3494	54.008889758139	1
0	3498	54.095746331286	1
0	3516	54.475148709595	1
0	3527	54.630049877511	1
0	3538	54.839205534773	1
0	3544	54.9324667203	1
0	3546	54.973739706973	1
0	3551	54.998381289194	1
0	3568	55.324273386912	1
0	3573	55.385001315774	1
0	3577	55.411359027058	1
0	3588	55.622447904496	1
0	3603	55.920667972043	1
0	3608	55.988448172249	1
0	3621	56.272112191587	1
0	3630	56.397835891144	1
0	3638	56.558381767451	1
0	3645	56.624966016115	1
0	3651	56.724512380452	1
0	3658	56.847800426755	1
0	3669	57.055176573065	1
0	3675	57.12412002685	1
0	3677	57.158795357229	1
0	3688	57.344938521527	1
0	3699	57.533948691337	1
0	3701	57.555558312996	1
0	3708	57.651759505655	1
0	3717	57.80018375392	1
0	3721	57.801516278403	1
0	3736	58.167482011479	1
0	3743	58.210135592683	1
0	3754	58.408410483143	1
0	3757	58.424443892592	1
0	3763	58.576050785575	1
0	3779	58.976845751062	1
0	3797	59.397031693687	1
0	3800	59.462111427923	1
0	3811	59.602178997619	1
0	3814	59.670973345465	1
0	3816	59.671378977597	1
0	3822	59.773397686392	1
0	3829	59.804797476198	1
0	3831	59.850776607976	1
0	3837	59.903623330806	1
0	3839	59.918345834537	1
0	3841	59.974246601536	1
0	3852	60.14690993951	1
0	3857	60.182269597036	1
0	3861	60.203322925856	1
0	3863	60.254594390119	1
0	3869	60.326198921918	1
0	3871	60.339056945646	1
0	3873	60.364458083481	1
0	3893	60.759221410237	1
0	3895	60.769518246609	1
0	3902	60.821626128717	1
0	3913	61.019815162828	1
0	3919	61.104028793112	1
0	3935	61.46492289361	1
0	3941	61.507022223415	1
0	3957	61.831018520105	1
0	3966	61.98654795614	1
0	3977	62.223586714201	1
0	3980	62.276582872128	1
0	3991	62.425325847562	1
0	3994	62.469840781503	1
0	3998	62.510359069737	1
0	4002	62.561358153122	1
0	4004	62.569816102298	1
0	4009	62.605745492811	1
0	4013	62.658042258177	1
0	4022	62.807305474596	1
0	4026	62.83373252101	1
0	4039	63.094389701242	1
0	4041	63.108602252381	1
0	4045	63.147952493493	1
0	4047	63.153443230748	1
0	4063	63.458929208649	1
0	4072	63.588243994529	1
0	4074	63.589648653653	1
0	4076	63.590797978674	1
0	4080	63.667040347095	1
0	4089	63.814260762894	1
0	4093	63.850584984784	1
0	4095	63.86647830275	1
0	4108	64.080916849201	1
0	4110	64.089203076493	1
0	4112	64.118054347528	1
0	4116	64.127441802256	1
0	4123	64.240579679016	1
0	4129	64.352068421207	1
0	4138	64.518364999274	1
0	4142	64.546517401521	1
0	4147	64.603106855684	1
0	4151	64.657672627161	1
0	4160	64.797159536287	1
0	4164	64.878661369377	1
0	4175	65.055623351698	1
0	4186	65.252629108257	1
0	4190	65.300276966517	1
0	4199	65.430121530077	1
0	4201	65.440274938471	1
0	4203	65.471790941343	1
0	4207	65.501381128668	1
0	4209	65.51547791711	1
0	4216	65.605110837612	1
0	4218	65.610807490859	1
0	4222	65.675524961263	1
0	4226	65.711421093101	1
0	4230	65.7783513803	1
0	4235	65.808748536223	1
0	4239	65.870092445182	1
0	4245	65.930998890714	1
0	4250	66.005357209892	1
0	4256	66.120331348667	1
0	4260	66.178673725771	1
0	4269	66.297623350904	1
0	4280	66.489107576668	1
0	4282	66.522447910506	1
0	4286	66.57926495888	1
0	4293	66.627056757631	1
0	4302	66.802428222133	1
0	4304	66.822413775925	1
0	4310	66.893614582487	1
0	4319	67.04898913269	1
0	4321	67.058022857098	1
0	4323	67.063875646993	1
0	4329	67.171768337843	1
0	4338	67.291169674903	1
0	4340	67.314311772099	1
0	4349	67.465133295262	1
0	4360	67.653045138683	1
0	4369	67.803286418054	1
0	4375	67.917655480113	1
0	4379	67.947687988142	1
0	4381	67.967334176732	1
0	4386	68.014144822055	1
0	4388	68.021386733066	1
0	4394	68.109962797669	1
0	4396	68.110936338603	1
0	4400	68.142794723391	1
0	4411	68.365403122335	1
0	4416	68.411742125089	1
0	4420	68.426067427227	1
0	4422	68.448014243316	1
0	4431	68.599060403438	1
0	4435	68.660652331816	1
0	4448	68.919897192694	1
0	4450	68.924460997644	1
0	4459	69.050050346078	1
0	4468	69.210892130987	1
0	4472	69.278387228352	1
0	4476	69.286395113946	1
0	4480	69.349788326595	1
0	4485	69.422942860508	1
0	4498	69.637252830551	1
0	4500	69.673897959734	1
0	4506	69.740921147392	1
0	4513	69.827087896572	1
0	4517	69.880628331681	1
0	4533	70.201109214642	1
0	4535	70.220238819232	1
0	4541	70.323963328642	1
0	4548	70.388454177759	1
0	4550	70.392054460734	1
0	4558	70.545139302628	1
0	4563	70.60142182281	1
0	4569	70.682711658929	1
0	4573	70.754050087209	1
0	4575	70.771469603246	1
0	4582	70.848294937433	1
0	4584	70.863823495983	1
0	4590	70.978203033895	1
0	4599	71.083031944391	1
0	4601	71.11554903144	1
0	4608	71.19303326939	1
0	4610	71.206828592583	1
0	4614	71.246234349778	1
0	4618	71.296103583065	1
0	4620	71.312004784745	1
0	4636	71.6252877337	1
0	4640	71.642707605358	1
0	4642	71.663426123583	1
0	4644	71.677284805725	1
0	4657	71.911608798734	1
0	4664	71.998102609677	1
0	4668	72.076586311636	1
0	4672	72.086266058867	1
0	4676	72.147314343367	1
0	4690	72.388715986418	1
0	4701	72.60245815546	1
0	4703	72.611119854905	1
0	4707	72.672480275879	1
0	4718	72.833613475791	1
0	4724	72.962409673299	1
0	4735	73.172073300651	1
0	4740	73.222993549338	1
0	4744	73.232805501601	1
0	4755	73.467192465681	1
0	4759	73.522758356997	1
0	4768	73.639884726492	1
0	4772	73.703982081018	1
0	4779	73.824253459401	1
0	4785	73.911050457603	1
0	4789	73.950758552605	1
0	4796	74.076722669667	1
0	4805	74.218101002621	1
0	4807	74.220845212664	1
0	4813	74.321922128974	1
0	4822	74.453374338782	1
0	4826	74.480820690982	1
0	4835	74.62647671214	1
0	4837	74.643976216962	1
0	4839	74.644957660602	1
0	4848	74.804113272881	1
0	4852	74.840971566842	1
0	4867	75.160797064519	1
0	4872	75.18730637466	1
0	4876	75.248580919146	1
0	4880	75.318583482758	1
0	4887	75.407983623026	1
0	4902	75.715291145305	1
0	4913	75.91028883649	1
0	4920	75.991890692886	1
0	4924	76.052996449015	1
0	4926	76.063251638315	1
0	4941	76.366645895555	1
0	4948	76.463846984661	1
0	4954	76.549590494922	1
0	4965	76.748384440406	1
0	4974	76.920291371585	1
0	4978	76.937445234322	1
0	4989	77.176963213261	1
0	5014	77.665313112296	1
0	5025	77.834336607772	1
0	5027	77.843219846037	1
0	5029	77.860585502358	1
0	5031	77.870507655006	1
0	5037	77.969635605582	1
0	5044	78.07004072297	1
0	5048	78.120862668375	1
0	5064	78.419040634108	1
0	5068	78.425517203387	1
0	5081	78.701577648955	1
0	5085	78.756748010214	1
0	5090	78.816056169947	1
0	5094	78.845989008189	1
0	5100	78.976072750935	1
0	5111	79.165145666378	1
0	5120	79.300717517763	1
0	5122	79.304104703287	1
0	5126	79.340775218666	1
0	5142	79.660151405934	1
0	5144	79.672908763314	1
0	5148	79.716816461873	1
0	5152	79.775493342541	1
0	5157	79.819608823614	1
0	5161	79.869329752248	1
0	5163	79.870976080646	1
0	5169	79.946872558071	1
0	5171	79.967357784786	1
0	5182	80.154021831804	1
0	5187	80.205314530987	1
0	5193	80.282160788726	1
0	5206	80.547079614949	1
0	5213	80.661107502641	1
0	5215	80.671600777374	1
0	5221	80.76555097596	1
0	5237	81.056142936326	1
0	5239	81.06651001999	1
0	5250	81.270139438717	1
0	5254	81.27979356662	1
0	5258	81.340336944784	1
0	5260	81.346096236466	1
0	5265	81.385652796506	1
0	5267	81.394703543521	1
0	5269	81.421197037285	1
0	5273	81.448269476359	1
0	5279	81.543581730186	1
0	5290	81.726535945772	1
0	5292	81.729899337864	1
0	5297	81.803791339858	1
0	5299	81.805364252235	1
0	5303	81.877328742004	1
0	5309	81.933329579337	1
0	5316	82.03826379593	1
0	5318	82.045313990766	1
0	5322	82.123969899955	1
0	5326	82.152997241467	1
0	5328	82.156297639973	1
0	5333	82.181292721638	1
0	5337	82.268078908627	1
0	5341	82.2972735158	1
0	5350	82.444715738278	1
0	5352	82.458763309974	1
0	5356	82.505960118751	1
0	5358	82.507171043257	1
0	5362	82.574706630274	1
0	5367	82.586978131006	1
0	5387	82.986734478678	1
0	5393	83.083093748307	1
0	5395	83.111151340925	1
0	5413	83.477107552771	1
0	5417	83.523999685498	1
0	5442	83.988027685093	1
0	5444	83.992701175267	1
0	5448	84.045304254843	1
0	5452	84.082420426923	1
0	5454	84.100208102709	1
0	5463	84.278301570198	1
0	5472	84.380123328079	1
0	5480	84.544641670786	1
0	5485	84.612036015208	1
0	5491	84.714207849949	1
0	5513	85.168990235135	1
0	5518	85.214893027884	1
0	5520	85.221646443572	1
0	5524	85.259152637884	1
0	5533	85.412046524955	1
0	5541	85.573912631597	1
0	5546	85.607936353558	1
0	5548	85.615241519273	1
0	5552	85.642872038566	1
0	5558	85.757938297859	1
0	5565	85.866558628975	1
0	5569	85.914479898423	1
0	5573	85.942724569619	1
0	5580	86.043217900525	1
0	5586	86.152837156626	1
0	5600	86.414401249868	1
0	5606	86.487239007171	1
0	5615	86.679612864238	1
0	5621	86.734793076402	1
0	5626	86.803644465206	1
0	5632	86.884542434719	1
0	5636	86.940375113645	1
0	5638	86.974209725515	1
0	5649	87.147121689283	1
0	5656	87.269734910506	1
0	5665	87.403762506704	1
0	5669	87.457352386238	1
0	5673	87.516618128032	1
0	5677	87.561332118292	1
0	5695	87.908396626346	1
0	5706	88.084805365565	1
0	5710	88.129929245414	1
0	5724	88.388911859964	1
0	5728	88.439584181354	1
0	5730	88.44429410846	1
0	5736	88.578496082578	1
0	5741	88.604974309912	1
0	5745	88.664591499052	1
0	5749	88.70744225947	1
0	5765	88.984356707754	1
0	5773	89.15307853663	1
0	5778	89.182815889421	1
0	5798	89.606117469054	1
0	5802	89.654205291484	1
0	5820	90.001490862074	1
0	5826	90.120939856425	1
0	5839	90.356273333232	1
0	5853	90.583644049901	1
0	5855	90.618820788444	1
0	5859	90.631724638762	1
0	5881	91.114696663559	1
0	5885	91.142343935213	1
0	5887	91.171034844751	1
0	5892	91.196946070339	1
0	5894	91.208140524453	1
0	5898	91.275378814657	1
0	5913	91.576875641876	1
0	5927	91.798997060196	1
0	5931	91.825578715098	1
0	5933	91.869912154698	1
0	5942	91.986955727699	1
0	5946	92.035607641675	1
0	5948	92.041620478588	1
0	5961	92.290183587023	1
0	5968	92.421379895131	1
0	5972	92.433463034757	1
0	5983	92.646933274211	1
0	5989	92.746663166628	1
0	5991	92.778468621147	1
0	5996	92.792718915712	1
0	6000	92.840370497809	1
0	6004	92.887250066973	1
0	6008	92.934137882536	1
0	6010	92.973354011498	1
0	6019	93.111499919483	1
0	6028	93.225479460149	1
0	6030	93.252635039317	1
0	6039	93.411370762286	1
0	6043	93.430227234711	1
0	6047	93.500331785644	1
0	6051	93.559986777332	1
0	6056	93.595118905486	1
0	6060	93.631426789504	1
0	6071	93.848549377639	1
0	6082	94.031302004421	1
0	6084	94.074668489958	1
0	6088	94.101815486601	1
0	6097	94.23590565906	1
0	6101	94.305699413943	1
0	6108	94.386748728661	1
0	6121	94.672491263443	1
0	6125	94.694995512829	1
0	6132	94.795507077686	1
0	6136	94.875029297817	1
0	6147	95.076987748139	1
0	6153	95.150310282007	1
0	6169	95.432001455003	1
0	6171	95.47489263858	1
0	6180	95.613828489275	1
0	6182	95.616321298848	1
0	6190	95.736577033319	1
0	6192	95.752691291202	1
0	6210	96.096785695961	1
0	6212	96.110925007234	1
0	6239	96.629437949537	1
0	6245	96.75250983464	1
0	6250	96.812625299278	1
0	6258	96.936093286883	1
0	6260	96.943443924625	1
0	6267	97.03805409875	1
0	6269	97.072697431499	1
0	6278	97.184143254671	1
0	6280	97.200672555903	1
0	6284	97.260005612729	1
0	6288	97.314045882489	1
0	6297	97.433144027829	1
0	6299	97.447218543372	1
0	6303	97.494752510336	1
0	6310	97.587416370366	1
0	6312	97.597955983357	1
0	6316	97.646213504873	1
0	6331	97.968745113245	1
0	6345	98.194492792321	1
0	6347	98.202011973237	1
0	6364	98.545574312485	1
0	6366	98.54752324178	1
0	6373	98.62668415124	1
0	6391	99.015775160281	1
0	6395	99.047909190568	1
0	6397	99.063982194625	1
0	6403	99.153687496036	1
0	6408	99.18362279633	1
0	6419	99.41069380707	1
0	6423	99.434968350806	1
0	6427	99.487179481247	1
0	6431	99.57390868313	1
0	6438	99.654222360322	1
0	6458	100.026163191412	1
0	6460	100.057860929401	1
0	6464	100.089745034242	1
0	6468	100.150523510654	1
0	6486	100.501429865754	1
0	6490	100.55279842708	1
0	6492	100.555381231523	1
0	6497	100.583938123573	1
0	6508	100.802902795029	1
0	6512	100.873397727167	1
0	6521	100.996706599889	1
0	6525	101.033868175372	1
0	6527	101.066409847088	1
0	6531	101.113096281444	1
0	6544	101.338345568451	1
0	6549	101.412783394591	1
0	6551	101.415471456542	1
0	6559	101.554339183929	1
0	6566	101.652592018201	1
0	6570	101.693164652588	1
0	6574	101.733144179836	1
0	6588	101.991055492915	1
0	6605	102.332547983158	1
0	6616	102.530829241185	1
0	6618	102.549290828476	1
0	6620	102.554282388719	1
0	6634	102.786034994976	1
0	6636	102.815290055095	1
0	6640	102.855328208241	1
0	6644	102.914411730281	1
0	6657	103.134444662325	1
0	6659	103.145496249985	1
0	6664	103.217332833506	1
0	6668	103.260176936385	1
0	6674	103.331640355123	1
0	6681	103.466385237492	1
0	6685	103.515296078554	1
0	6694	103.629400411979	1
0	6698	103.704921593755	1
0	6705	103.802309452903	1
0	6720	104.091821214605	1
0	6727	104.215791022667	1
0	6740	104.439155007777	1
0	6742	104.462086724941	1
0	6748	104.575132444772	1
0	6753	104.616941610666	1
0	6759	104.718836928774	1
0	6768	104.831612972131	1
0	6772	104.911100255738	1
0	6783	105.122490937203	1
0	6787	105.154330238809	1
0	6794	105.232785908501	1
0	6796	105.248834319237	1
0	6800	105.282060381595	1
0	6809	105.476065202583	1
0	6811	105.479135379884	1
0	6820	105.579936733932	1
0	6826	105.70384038467	1
0	6830	105.739456962826	1
0	6832	105.740248497477	1
0	6837	105.801907806329	1
0	6841	105.848537508973	1
0	6843	105.851020829748	1
0	6849	105.926637454527	1
0	6854	106.008296723412	1
0	6867	106.263544372767	1
0	6871	106.308353169605	1
0	6873	106.317728708366	1
0	6880	106.387586808974	1
0	6884	106.439664695461	1
0	6886	106.456344271273	1
0	6888	106.45880563568	1
0	6892	106.514232483021	1
0	6896	106.556180415368	1
0	6910	106.792809441753	1
0	6916	106.890156696118	1
0	6918	106.891011497983	1
0	6920	106.923732536116	1
0	6938	107.270671919994	1
0	6942	107.294212506644	1
0	6949	107.411619520323	1
0	6951	107.423915777012	1
0	6955	107.434387004355	1
0	6959	107.520458475106	1
0	6963	107.554675944268	1
0	6970	107.673508860297	1
0	6976	107.75096053909	1
0	6983	107.86242163939	1
0	6992	107.991210663301	1
0	7007	108.288531497249	1
0	7011	108.337775634887	1
0	7013	108.338046322345	1
0	7015	108.363804808979	1
0	7022	108.467989255461	1
0	7028	108.528660496385	1
0	7033	108.620387676076	1
0	7050	108.97823784866	1
0	7057	109.067090719893	1
0	7068	109.246558031293	1
0	7083	109.575622914319	1
0	7097	109.82188734126	1
0	7099	109.823588903633	1
0	7107	109.933635756681	1
0	7114	110.052867334103	1
0	7118	110.110968199649	1
0	7127	110.278996439657	1
0	7136	110.394543912532	1
0	7140	110.465839560445	1
0	7146	110.570422089724	1
0	7151	110.611063376399	1
0	7153	110.614016557515	1
0	7161	110.770482212585	1
0	7175	111.02247108197	1
0	7179	111.032701260071	1
0	7183	111.110889702381	1
0	7187	111.169235719612	1
0	7212	111.641875239298	1
0	7216	111.715262236	1
0	7220	111.763567538426	1
0	7229	111.881970312061	1
0	7238	112.046305635582	1
0	7240	112.055834083869	1
0	7244	112.117639321583	1
0	7248	112.143485246455	1
0	7257	112.318830058283	1
0	7261	112.371644457355	1
0	7268	112.449105830991	1
0	7274	112.546735033288	1
0	7285	112.765006422217	1
0	7299	112.983008466933	1
0	7310	113.195123912618	1
0	7316	113.291573888794	1
0	7320	113.331368728259	1
0	7322	113.345693598638	1
0	7327	113.397516383448	1
0	7347	113.791662251911	1
0	7351	113.870330563457	1
0	7362	114.075735811843	1
0	7368	114.172940708691	1
0	7375	114.242801065386	1
0	7379	114.29050084048	1
0	7392	114.546052612146	1
0	7397	114.624169491145	1
0	7403	114.702122994028	1
0	7405	114.715010858632	1
0	7418	114.971804121502	1
0	7427	115.085965673854	1
0	7436	115.263101005786	1
0	7440	115.296945119068	1
0	7458	115.642046132004	1
0	7460	115.646438855417	1
0	7473	115.898740601552	1
0	7475	115.911081548703	1
0	7477	115.914751455731	1
0	7481	115.926004450369	1
0	7483	115.945214007984	1
0	7488	115.98326510284	1
0	7492	116.032552979677	1
0	7494	116.060860223262	1
0	7509	116.364813382275	1
0	7516	116.447545974635	1
0	7520	116.483217599902	1
0	7531	116.720041205202	1
0	7535	116.737532231212	1
0	7540	116.824307745506	1
0	7553	117.041731036219	1
0	7559	117.132845617026	1
0	7564	117.191975895583	1
0	7566	117.21916247944	1
0	7579	117.457624013763	1
0	7585	117.544585549847	1
0	7587	117.562048329495	1
0	7589	117.577815534778	1
0	7598	117.686025723226	1
0	7602	117.726917476151	1
0	7607	117.784946434949	1
0	7613	117.88317025339	1
0	7615	117.891127268899	1
0	7619	117.93596019956	1